                               Psi4 1.3.2 release

  ==> Input File <==

--------------------------------------------------------------------------
memory 400 MiB

molecule Spicy {
  0 1
C         -5.22356        0.59596       -0.00000
C         -5.29165       -0.80143       -0.00000
C         -3.97934        1.23568       -0.00000
C         -2.80322        0.47802       -0.00000
C         -2.87131       -0.91936       -0.00000
C         -4.11552       -1.55909       -0.00000
H         -3.92666        2.31674        0.00000
H         -1.84065        0.97293        0.00000
H         -6.13344        1.18210        0.00000
H         -6.25421       -1.29634        0.00000
H         -1.96142       -1.50551        0.00000
H         -4.16820       -2.64015        0.00000

}

set {
  scf_type df
  reference rhf
  basis cc-pVTZ
  molden_write true
}

gradient("mp2")
--------------------------------------------------------------------------

    Molecular point group: cs
  Charge       = 0
  Multiplicity = 1
  Basis Set: CC-PVTZ
    Blend: CC-PVTZ
  Basis Set: (CC-PVTZ AUX)
    Blend: CC-PVTZ-JKFIT

    Orbital Energies [Eh]
    ---------------------

    Doubly Occupied:

       1Ap   -11.235882     2Ap   -11.235322     3Ap   -11.235322
       4Ap   -11.234112     5Ap   -11.234111     6Ap   -11.233519
       7Ap    -1.145068     8Ap    -1.011149     9Ap    -1.011149
      10Ap    -0.821515    11Ap    -0.821514    12Ap    -0.706264
      13Ap    -0.643862    14Ap    -0.615074    15Ap    -0.585720
      16Ap    -0.585719     1App   -0.498608    17Ap    -0.493245
      18Ap    -0.493244     2App   -0.334310     3App   -0.334310

  @DF-RHF Final Energy:  -230.77845282148374

   => Energetics <=

    Nuclear Repulsion Energy =            203.0193370134555835
    One-Electron Energy =                -712.5775401471262285
    Two-Electron Energy =                 278.7797503121869340
    Total Energy =                       -230.7784528214837110

  Dipole Moment: [D]
     X:    -0.0000      Y:    -0.0000      Z:     0.0000     Total:     0.0000

  Basis Set: (CC-PVTZ AUX)
    Blend: CC-PVTZ-RI
    Molecular point group: cs

    Geometry (in Angstrom), charge = 0, multiplicity = 1:

       Center              X                  Y                   Z               Mass
    ------------   -----------------  -----------------  -----------------  -----------------
         C           -1.176126924928     0.757663462464     0.000000000000    12.000000000000
         C           -1.244216924928    -0.639726537536     0.000000000000    12.000000000000
         C            0.068093075072     1.397383462464     0.000000000000    12.000000000000
         C            1.244213075072     0.639723462464     0.000000000000    12.000000000000
         C            1.176123075072    -0.757656537536     0.000000000000    12.000000000000
         C           -0.068086924928    -1.397386537536     0.000000000000    12.000000000000
         H            0.120773075072     2.478443462464     0.000000000000     1.007825032230
         H            2.206783075072     1.134633462464     0.000000000000     1.007825032230
         H           -2.086006924928     1.343803462464     0.000000000000     1.007825032230
         H           -2.206776924928    -1.134636537536     0.000000000000     1.007825032230
         H            2.086013075072    -1.343806537536     0.000000000000     1.007825032230
         H           -0.120766924928    -2.478446537536     0.000000000000     1.007825032230

  Basis Set: CC-PVTZ
    Blend: CC-PVTZ
  Basis Set: (CC-PVTZ AUX)
    Blend: CC-PVTZ-JKFIT
  Basis Set: (CC-PVTZ AUX)
    Blend: CC-PVTZ-JKFIT
	 Reference Energy          =    -230.7784528214837394 [Eh]
	 Singles Energy            =      -0.0000000000000000 [Eh]
	 Same-Spin Energy          =      -0.2519255829108105 [Eh]
	 Opposite-Spin Energy      =      -0.7910925617705707 [Eh]
	 Correlation Energy        =      -1.0430181446813811 [Eh]
	 Total Energy              =    -231.8214709661651227 [Eh]

	 ================> DF-SCS-MP2 Energies <==================
	-----------------------------------------------------------
	 SCS Same-Spin Scale       =       0.3333333333333333 [-]
	 SCS Opposite-Spin Scale   =       1.2000000000000000 [-]
	 SCS Same-Spin Energy      =      -0.0839751943036035 [Eh]
	 SCS Opposite-Spin Energy  =      -0.9493110741246849 [Eh]
	 SCS Correlation Energy    =      -1.0332862684282884 [Eh]
	 SCS Total Energy          =    -231.8117390899120380 [Eh]
	-----------------------------------------------------------

  -Total Gradient:
     Atom            X                  Y                   Z
    ------   -----------------  -----------------  -----------------
       1       -0.005394875093     0.003479470182     0.000000000000
       2       -0.005704451360    -0.002934404133     0.000000000000
       3        0.000316335531     0.006399095958     0.000000000000
       4        0.005693642848     0.002927507873     0.000000000000
       5        0.005384017711    -0.003465500757     0.000000000000
       6       -0.000306768239    -0.006402913402     0.000000000000
       7        0.000202643742     0.004155087159     0.000000000000
       8        0.003702862361     0.001903584401     0.000000000000
       9       -0.003491388349     0.002248456979     0.000000000000
      10       -0.003697450608    -0.001901171321     0.000000000000
      11        0.003498553847    -0.002253958121     0.000000000000
      12       -0.000203122392    -0.004155254819     0.000000000000

*** Psi4 exiting successfully. Buy a developer a beer!
