                               Psi4 1.3.2 release

  ==> Input File <==

--------------------------------------------------------------------------
memory 400 MiB

molecule Spicy {
  0 1
C         -5.22356        0.59596       -0.00000
C         -5.29165       -0.80143       -0.00000
C         -3.97934        1.23568       -0.00000
C         -2.80322        0.47802       -0.00000
C         -2.87131       -0.91936       -0.00000
C         -4.11552       -1.55909       -0.00000
H         -3.92666        2.31674        0.00000
H         -1.84065        0.97293        0.00000
H         -6.13344        1.18210        0.00000
H         -6.25421       -1.29634        0.00000
H         -1.96142       -1.50551        0.00000
H         -4.16820       -2.64015        0.00000

}

set {
  scf_type df
  reference rhf
  basis cc-pVTZ
  molden_write true
}

gradient("b3lyp")
--------------------------------------------------------------------------

    Molecular point group: cs
  Charge       = 0
  Multiplicity = 1
  Basis Set: CC-PVTZ
    Blend: CC-PVTZ
  Basis Set: (CC-PVTZ AUX)
    Blend: CC-PVTZ-JKFIT

    Orbital Energies [Eh]
    ---------------------

    Doubly Occupied:

       1Ap   -10.180948     2Ap   -10.180699     3Ap   -10.180699
       4Ap   -10.180135     5Ap   -10.180134     6Ap   -10.179883
       7Ap    -0.853915     8Ap    -0.747226     9Ap    -0.747225
      10Ap    -0.605023    11Ap    -0.605023    12Ap    -0.525896
      13Ap    -0.465597    14Ap    -0.448425    15Ap    -0.424617
      16Ap    -0.424615     1App   -0.369664    17Ap    -0.348181
      18Ap    -0.348180     2App   -0.257352     3App   -0.257350

  @DF-RKS Final Energy:  -232.33303886998115

   => Energetics <=

    Nuclear Repulsion Energy =            203.0193370134555835
    One-Electron Energy =                -713.4286066819270218
    Two-Electron Energy =                 306.2352305382290751
    DFT Exchange-Correlation Energy =     -28.1589997397388103
    Empirical Dispersion Energy =           0.0000000000000000
    VV10 Nonlocal Energy =                  0.0000000000000000
    Total Energy =                       -232.3330388699811806

  Dipole Moment: [D]
     X:    -0.0000      Y:    -0.0000      Z:     0.0000     Total:     0.0000

    Molecular point group: cs

    Geometry (in Angstrom), charge = 0, multiplicity = 1:

       Center              X                  Y                   Z               Mass
    ------------   -----------------  -----------------  -----------------  -----------------
         C           -1.176126924928     0.757663462464     0.000000000000    12.000000000000
         C           -1.244216924928    -0.639726537536     0.000000000000    12.000000000000
         C            0.068093075072     1.397383462464     0.000000000000    12.000000000000
         C            1.244213075072     0.639723462464     0.000000000000    12.000000000000
         C            1.176123075072    -0.757656537536     0.000000000000    12.000000000000
         C           -0.068086924928    -1.397386537536     0.000000000000    12.000000000000
         H            0.120773075072     2.478443462464     0.000000000000     1.007825032230
         H            2.206783075072     1.134633462464     0.000000000000     1.007825032230
         H           -2.086006924928     1.343803462464     0.000000000000     1.007825032230
         H           -2.206776924928    -1.134636537536     0.000000000000     1.007825032230
         H            2.086013075072    -1.343806537536     0.000000000000     1.007825032230
         H           -0.120766924928    -2.478446537536     0.000000000000     1.007825032230

  Basis Set: CC-PVTZ
    Blend: CC-PVTZ
  Basis Set: (CC-PVTZ AUX)
    Blend: CC-PVTZ-JKFIT

  -Total Gradient:
     Atom            X                  Y                   Z
    ------   -----------------  -----------------  -----------------
       1       -0.006261126099     0.004031226620     0.000000000000
       2       -0.006645680091    -0.003407994236     0.000000000000
       3        0.000362081726     0.007451885075     0.000000000000
       4        0.006635016387     0.003401017839     0.000000000000
       5        0.006250460146    -0.004017185756     0.000000000000
       6       -0.000352693058    -0.007455694657     0.000000000000
       7        0.000018137142     0.000373821299     0.000000000000
       8        0.000336341644     0.000172198380     0.000000000000
       9       -0.000309010824     0.000198239967     0.000000000000
      10       -0.000330979286    -0.000169789504     0.000000000000
      11        0.000316093310    -0.000203707143     0.000000000000
      12       -0.000018645515    -0.000374017840     0.000000000000

*** Psi4 exiting successfully. Buy a developer a beer!
